V -t * -v 1.0a5 -a 0
A -t * -n 1 -p 0 -o 0xffffffff -c 31 -a 1
A -t * -h 1 -m 2147483647 -s 0
c -t * -i 1 -n Blue
c -t * -i 2 -n Red
c -t * -i 3 -n Green
n -t * -a 4 -s 4 -S UP -v circle -c black -i black
n -t * -a 0 -s 0 -S UP -v circle -c black -i black
n -t * -a 1 -s 1 -S UP -v circle -c black -i black
n -t * -a 2 -s 2 -S UP -v circle -c black -i black
n -t * -a 3 -s 3 -S UP -v circle -c black -i black
l -t * -s 0 -d 2 -S UP -r 2000000 -D 0.01 -c black -o right-down
l -t * -s 1 -d 2 -S UP -r 2000000 -D 0.01 -c black -o right-up
l -t * -s 4 -d 2 -S UP -r 2000000 -D 0.01 -c black -o right-center
l -t * -s 2 -d 3 -S UP -r 1700000 -D 0.02 -c black -o right
q -t * -s 3 -d 2 -a 0.5
q -t * -s 2 -d 3 -a 0.5
+ -t 0.1 -s 1 -d 2 -p cbr -e 1000 -c 2 -i 0 -a 2 -x {1.0 3.1 0 ------- null}
- -t 0.1 -s 1 -d 2 -p cbr -e 1000 -c 2 -i 0 -a 2 -x {1.0 3.1 0 ------- null}
h -t 0.1 -s 1 -d 2 -p cbr -e 1000 -c 2 -i 0 -a 2 -x {1.0 3.1 -1 ------- null}
+ -t 0.1 -s 4 -d 2 -p cbr -e 1000 -c 3 -i 1 -a 3 -x {4.0 3.2 0 ------- null}
- -t 0.1 -s 4 -d 2 -p cbr -e 1000 -c 3 -i 1 -a 3 -x {4.0 3.2 0 ------- null}
h -t 0.1 -s 4 -d 2 -p cbr -e 1000 -c 3 -i 1 -a 3 -x {4.0 3.2 -1 ------- null}
+ -t 0.108 -s 1 -d 2 -p cbr -e 1000 -c 2 -i 2 -a 2 -x {1.0 3.1 1 ------- null}
- -t 0.108 -s 1 -d 2 -p cbr -e 1000 -c 2 -i 2 -a 2 -x {1.0 3.1 1 ------- null}
h -t 0.108 -s 1 -d 2 -p cbr -e 1000 -c 2 -i 2 -a 2 -x {1.0 3.1 -1 ------- null}
+ -t 0.108 -s 4 -d 2 -p cbr -e 1000 -c 3 -i 3 -a 3 -x {4.0 3.2 1 ------- null}
- -t 0.108 -s 4 -d 2 -p cbr -e 1000 -c 3 -i 3 -a 3 -x {4.0 3.2 1 ------- null}
h -t 0.108 -s 4 -d 2 -p cbr -e 1000 -c 3 -i 3 -a 3 -x {4.0 3.2 -1 ------- null}
r -t 0.114 -s 1 -d 2 -p cbr -e 1000 -c 2 -i 0 -a 2 -x {1.0 3.1 0 ------- null}
+ -t 0.114 -s 2 -d 3 -p cbr -e 1000 -c 2 -i 0 -a 2 -x {1.0 3.1 0 ------- null}
- -t 0.114 -s 2 -d 3 -p cbr -e 1000 -c 2 -i 0 -a 2 -x {1.0 3.1 0 ------- null}
h -t 0.114 -s 2 -d 3 -p cbr -e 1000 -c 2 -i 0 -a 2 -x {1.0 3.1 -1 ------- null}
r -t 0.114 -s 4 -d 2 -p cbr -e 1000 -c 3 -i 1 -a 3 -x {4.0 3.2 0 ------- null}
+ -t 0.114 -s 2 -d 3 -p cbr -e 1000 -c 3 -i 1 -a 3 -x {4.0 3.2 0 ------- null}
+ -t 0.116 -s 1 -d 2 -p cbr -e 1000 -c 2 -i 4 -a 2 -x {1.0 3.1 2 ------- null}
- -t 0.116 -s 1 -d 2 -p cbr -e 1000 -c 2 -i 4 -a 2 -x {1.0 3.1 2 ------- null}
h -t 0.116 -s 1 -d 2 -p cbr -e 1000 -c 2 -i 4 -a 2 -x {1.0 3.1 -1 ------- null}
+ -t 0.116 -s 4 -d 2 -p cbr -e 1000 -c 3 -i 5 -a 3 -x {4.0 3.2 2 ------- null}
- -t 0.116 -s 4 -d 2 -p cbr -e 1000 -c 3 -i 5 -a 3 -x {4.0 3.2 2 ------- null}
h -t 0.116 -s 4 -d 2 -p cbr -e 1000 -c 3 -i 5 -a 3 -x {4.0 3.2 -1 ------- null}
- -t 0.118705882352941 -s 2 -d 3 -p cbr -e 1000 -c 3 -i 1 -a 3 -x {4.0 3.2 0 ------- null}
h -t 0.118705882352941 -s 2 -d 3 -p cbr -e 1000 -c 3 -i 1 -a 3 -x {4.0 3.2 -1 ------- null}
r -t 0.122 -s 1 -d 2 -p cbr -e 1000 -c 2 -i 2 -a 2 -x {1.0 3.1 1 ------- null}
+ -t 0.122 -s 2 -d 3 -p cbr -e 1000 -c 2 -i 2 -a 2 -x {1.0 3.1 1 ------- null}
r -t 0.122 -s 4 -d 2 -p cbr -e 1000 -c 3 -i 3 -a 3 -x {4.0 3.2 1 ------- null}
+ -t 0.122 -s 2 -d 3 -p cbr -e 1000 -c 3 -i 3 -a 3 -x {4.0 3.2 1 ------- null}
- -t 0.123411764705882 -s 2 -d 3 -p cbr -e 1000 -c 2 -i 2 -a 2 -x {1.0 3.1 1 ------- null}
h -t 0.123411764705882 -s 2 -d 3 -p cbr -e 1000 -c 2 -i 2 -a 2 -x {1.0 3.1 -1 ------- null}
+ -t 0.124 -s 1 -d 2 -p cbr -e 1000 -c 2 -i 6 -a 2 -x {1.0 3.1 3 ------- null}
- -t 0.124 -s 1 -d 2 -p cbr -e 1000 -c 2 -i 6 -a 2 -x {1.0 3.1 3 ------- null}
h -t 0.124 -s 1 -d 2 -p cbr -e 1000 -c 2 -i 6 -a 2 -x {1.0 3.1 -1 ------- null}
+ -t 0.124 -s 4 -d 2 -p cbr -e 1000 -c 3 -i 7 -a 3 -x {4.0 3.2 3 ------- null}
- -t 0.124 -s 4 -d 2 -p cbr -e 1000 -c 3 -i 7 -a 3 -x {4.0 3.2 3 ------- null}
h -t 0.124 -s 4 -d 2 -p cbr -e 1000 -c 3 -i 7 -a 3 -x {4.0 3.2 -1 ------- null}
- -t 0.128117647058824 -s 2 -d 3 -p cbr -e 1000 -c 3 -i 3 -a 3 -x {4.0 3.2 1 ------- null}
h -t 0.128117647058824 -s 2 -d 3 -p cbr -e 1000 -c 3 -i 3 -a 3 -x {4.0 3.2 -1 ------- null}
r -t 0.13 -s 1 -d 2 -p cbr -e 1000 -c 2 -i 4 -a 2 -x {1.0 3.1 2 ------- null}
+ -t 0.13 -s 2 -d 3 -p cbr -e 1000 -c 2 -i 4 -a 2 -x {1.0 3.1 2 ------- null}
r -t 0.13 -s 4 -d 2 -p cbr -e 1000 -c 3 -i 5 -a 3 -x {4.0 3.2 2 ------- null}
+ -t 0.13 -s 2 -d 3 -p cbr -e 1000 -c 3 -i 5 -a 3 -x {4.0 3.2 2 ------- null}
+ -t 0.132 -s 1 -d 2 -p cbr -e 1000 -c 2 -i 8 -a 2 -x {1.0 3.1 4 ------- null}
- -t 0.132 -s 1 -d 2 -p cbr -e 1000 -c 2 -i 8 -a 2 -x {1.0 3.1 4 ------- null}
h -t 0.132 -s 1 -d 2 -p cbr -e 1000 -c 2 -i 8 -a 2 -x {1.0 3.1 -1 ------- null}
+ -t 0.132 -s 4 -d 2 -p cbr -e 1000 -c 3 -i 9 -a 3 -x {4.0 3.2 4 ------- null}
- -t 0.132 -s 4 -d 2 -p cbr -e 1000 -c 3 -i 9 -a 3 -x {4.0 3.2 4 ------- null}
h -t 0.132 -s 4 -d 2 -p cbr -e 1000 -c 3 -i 9 -a 3 -x {4.0 3.2 -1 ------- null}
- -t 0.132823529411765 -s 2 -d 3 -p cbr -e 1000 -c 2 -i 4 -a 2 -x {1.0 3.1 2 ------- null}
h -t 0.132823529411765 -s 2 -d 3 -p cbr -e 1000 -c 2 -i 4 -a 2 -x {1.0 3.1 -1 ------- null}
- -t 0.137529411764706 -s 2 -d 3 -p cbr -e 1000 -c 3 -i 5 -a 3 -x {4.0 3.2 2 ------- null}
h -t 0.137529411764706 -s 2 -d 3 -p cbr -e 1000 -c 3 -i 5 -a 3 -x {4.0 3.2 -1 ------- null}
r -t 0.138 -s 1 -d 2 -p cbr -e 1000 -c 2 -i 6 -a 2 -x {1.0 3.1 3 ------- null}
+ -t 0.138 -s 2 -d 3 -p cbr -e 1000 -c 2 -i 6 -a 2 -x {1.0 3.1 3 ------- null}
r -t 0.138 -s 4 -d 2 -p cbr -e 1000 -c 3 -i 7 -a 3 -x {4.0 3.2 3 ------- null}
+ -t 0.138 -s 2 -d 3 -p cbr -e 1000 -c 3 -i 7 -a 3 -x {4.0 3.2 3 ------- null}
r -t 0.138705882352941 -s 2 -d 3 -p cbr -e 1000 -c 2 -i 0 -a 2 -x {1.0 3.1 0 ------- null}
+ -t 0.14 -s 1 -d 2 -p cbr -e 1000 -c 2 -i 10 -a 2 -x {1.0 3.1 5 ------- null}
- -t 0.14 -s 1 -d 2 -p cbr -e 1000 -c 2 -i 10 -a 2 -x {1.0 3.1 5 ------- null}
h -t 0.14 -s 1 -d 2 -p cbr -e 1000 -c 2 -i 10 -a 2 -x {1.0 3.1 -1 ------- null}
+ -t 0.14 -s 4 -d 2 -p cbr -e 1000 -c 3 -i 11 -a 3 -x {4.0 3.2 5 ------- null}
- -t 0.14 -s 4 -d 2 -p cbr -e 1000 -c 3 -i 11 -a 3 -x {4.0 3.2 5 ------- null}
h -t 0.14 -s 4 -d 2 -p cbr -e 1000 -c 3 -i 11 -a 3 -x {4.0 3.2 -1 ------- null}
- -t 0.142235294117647 -s 2 -d 3 -p cbr -e 1000 -c 2 -i 6 -a 2 -x {1.0 3.1 3 ------- null}
h -t 0.142235294117647 -s 2 -d 3 -p cbr -e 1000 -c 2 -i 6 -a 2 -x {1.0 3.1 -1 ------- null}
r -t 0.143411764705882 -s 2 -d 3 -p cbr -e 1000 -c 3 -i 1 -a 3 -x {4.0 3.2 0 ------- null}
r -t 0.146 -s 1 -d 2 -p cbr -e 1000 -c 2 -i 8 -a 2 -x {1.0 3.1 4 ------- null}
+ -t 0.146 -s 2 -d 3 -p cbr -e 1000 -c 2 -i 8 -a 2 -x {1.0 3.1 4 ------- null}
r -t 0.146 -s 4 -d 2 -p cbr -e 1000 -c 3 -i 9 -a 3 -x {4.0 3.2 4 ------- null}
+ -t 0.146 -s 2 -d 3 -p cbr -e 1000 -c 3 -i 9 -a 3 -x {4.0 3.2 4 ------- null}
- -t 0.146941176470588 -s 2 -d 3 -p cbr -e 1000 -c 3 -i 7 -a 3 -x {4.0 3.2 3 ------- null}
h -t 0.146941176470588 -s 2 -d 3 -p cbr -e 1000 -c 3 -i 7 -a 3 -x {4.0 3.2 -1 ------- null}
+ -t 0.148 -s 1 -d 2 -p cbr -e 1000 -c 2 -i 12 -a 2 -x {1.0 3.1 6 ------- null}
- -t 0.148 -s 1 -d 2 -p cbr -e 1000 -c 2 -i 12 -a 2 -x {1.0 3.1 6 ------- null}
h -t 0.148 -s 1 -d 2 -p cbr -e 1000 -c 2 -i 12 -a 2 -x {1.0 3.1 -1 ------- null}
+ -t 0.148 -s 4 -d 2 -p cbr -e 1000 -c 3 -i 13 -a 3 -x {4.0 3.2 6 ------- null}
- -t 0.148 -s 4 -d 2 -p cbr -e 1000 -c 3 -i 13 -a 3 -x {4.0 3.2 6 ------- null}
h -t 0.148 -s 4 -d 2 -p cbr -e 1000 -c 3 -i 13 -a 3 -x {4.0 3.2 -1 ------- null}
r -t 0.148117647058824 -s 2 -d 3 -p cbr -e 1000 -c 2 -i 2 -a 2 -x {1.0 3.1 1 ------- null}
- -t 0.151647058823529 -s 2 -d 3 -p cbr -e 1000 -c 2 -i 8 -a 2 -x {1.0 3.1 4 ------- null}
h -t 0.151647058823529 -s 2 -d 3 -p cbr -e 1000 -c 2 -i 8 -a 2 -x {1.0 3.1 -1 ------- null}
r -t 0.152823529411765 -s 2 -d 3 -p cbr -e 1000 -c 3 -i 3 -a 3 -x {4.0 3.2 1 ------- null}
r -t 0.154 -s 1 -d 2 -p cbr -e 1000 -c 2 -i 10 -a 2 -x {1.0 3.1 5 ------- null}
+ -t 0.154 -s 2 -d 3 -p cbr -e 1000 -c 2 -i 10 -a 2 -x {1.0 3.1 5 ------- null}
r -t 0.154 -s 4 -d 2 -p cbr -e 1000 -c 3 -i 11 -a 3 -x {4.0 3.2 5 ------- null}
+ -t 0.154 -s 2 -d 3 -p cbr -e 1000 -c 3 -i 11 -a 3 -x {4.0 3.2 5 ------- null}
+ -t 0.156 -s 1 -d 2 -p cbr -e 1000 -c 2 -i 14 -a 2 -x {1.0 3.1 7 ------- null}
- -t 0.156 -s 1 -d 2 -p cbr -e 1000 -c 2 -i 14 -a 2 -x {1.0 3.1 7 ------- null}
h -t 0.156 -s 1 -d 2 -p cbr -e 1000 -c 2 -i 14 -a 2 -x {1.0 3.1 -1 ------- null}
+ -t 0.156 -s 4 -d 2 -p cbr -e 1000 -c 3 -i 15 -a 3 -x {4.0 3.2 7 ------- null}
- -t 0.156 -s 4 -d 2 -p cbr -e 1000 -c 3 -i 15 -a 3 -x {4.0 3.2 7 ------- null}
h -t 0.156 -s 4 -d 2 -p cbr -e 1000 -c 3 -i 15 -a 3 -x {4.0 3.2 -1 ------- null}
- -t 0.156352941176471 -s 2 -d 3 -p cbr -e 1000 -c 3 -i 9 -a 3 -x {4.0 3.2 4 ------- null}
h -t 0.156352941176471 -s 2 -d 3 -p cbr -e 1000 -c 3 -i 9 -a 3 -x {4.0 3.2 -1 ------- null}
r -t 0.157529411764706 -s 2 -d 3 -p cbr -e 1000 -c 2 -i 4 -a 2 -x {1.0 3.1 2 ------- null}
- -t 0.161058823529412 -s 2 -d 3 -p cbr -e 1000 -c 2 -i 10 -a 2 -x {1.0 3.1 5 ------- null}
h -t 0.161058823529412 -s 2 -d 3 -p cbr -e 1000 -c 2 -i 10 -a 2 -x {1.0 3.1 -1 ------- null}
r -t 0.162 -s 1 -d 2 -p cbr -e 1000 -c 2 -i 12 -a 2 -x {1.0 3.1 6 ------- null}
+ -t 0.162 -s 2 -d 3 -p cbr -e 1000 -c 2 -i 12 -a 2 -x {1.0 3.1 6 ------- null}
r -t 0.162 -s 4 -d 2 -p cbr -e 1000 -c 3 -i 13 -a 3 -x {4.0 3.2 6 ------- null}
+ -t 0.162 -s 2 -d 3 -p cbr -e 1000 -c 3 -i 13 -a 3 -x {4.0 3.2 6 ------- null}
r -t 0.162235294117647 -s 2 -d 3 -p cbr -e 1000 -c 3 -i 5 -a 3 -x {4.0 3.2 2 ------- null}
+ -t 0.164 -s 1 -d 2 -p cbr -e 1000 -c 2 -i 16 -a 2 -x {1.0 3.1 8 ------- null}
- -t 0.164 -s 1 -d 2 -p cbr -e 1000 -c 2 -i 16 -a 2 -x {1.0 3.1 8 ------- null}
h -t 0.164 -s 1 -d 2 -p cbr -e 1000 -c 2 -i 16 -a 2 -x {1.0 3.1 -1 ------- null}
+ -t 0.164 -s 4 -d 2 -p cbr -e 1000 -c 3 -i 17 -a 3 -x {4.0 3.2 8 ------- null}
- -t 0.164 -s 4 -d 2 -p cbr -e 1000 -c 3 -i 17 -a 3 -x {4.0 3.2 8 ------- null}
h -t 0.164 -s 4 -d 2 -p cbr -e 1000 -c 3 -i 17 -a 3 -x {4.0 3.2 -1 ------- null}
- -t 0.165764705882353 -s 2 -d 3 -p cbr -e 1000 -c 3 -i 11 -a 3 -x {4.0 3.2 5 ------- null}
h -t 0.165764705882353 -s 2 -d 3 -p cbr -e 1000 -c 3 -i 11 -a 3 -x {4.0 3.2 -1 ------- null}
r -t 0.166941176470588 -s 2 -d 3 -p cbr -e 1000 -c 2 -i 6 -a 2 -x {1.0 3.1 3 ------- null}
r -t 0.17 -s 1 -d 2 -p cbr -e 1000 -c 2 -i 14 -a 2 -x {1.0 3.1 7 ------- null}
+ -t 0.17 -s 2 -d 3 -p cbr -e 1000 -c 2 -i 14 -a 2 -x {1.0 3.1 7 ------- null}
r -t 0.17 -s 4 -d 2 -p cbr -e 1000 -c 3 -i 15 -a 3 -x {4.0 3.2 7 ------- null}
+ -t 0.17 -s 2 -d 3 -p cbr -e 1000 -c 3 -i 15 -a 3 -x {4.0 3.2 7 ------- null}
- -t 0.170470588235294 -s 2 -d 3 -p cbr -e 1000 -c 2 -i 12 -a 2 -x {1.0 3.1 6 ------- null}
h -t 0.170470588235294 -s 2 -d 3 -p cbr -e 1000 -c 2 -i 12 -a 2 -x {1.0 3.1 -1 ------- null}
r -t 0.171647058823529 -s 2 -d 3 -p cbr -e 1000 -c 3 -i 7 -a 3 -x {4.0 3.2 3 ------- null}
+ -t 0.172 -s 1 -d 2 -p cbr -e 1000 -c 2 -i 18 -a 2 -x {1.0 3.1 9 ------- null}
- -t 0.172 -s 1 -d 2 -p cbr -e 1000 -c 2 -i 18 -a 2 -x {1.0 3.1 9 ------- null}
h -t 0.172 -s 1 -d 2 -p cbr -e 1000 -c 2 -i 18 -a 2 -x {1.0 3.1 -1 ------- null}
+ -t 0.172 -s 4 -d 2 -p cbr -e 1000 -c 3 -i 19 -a 3 -x {4.0 3.2 9 ------- null}
- -t 0.172 -s 4 -d 2 -p cbr -e 1000 -c 3 -i 19 -a 3 -x {4.0 3.2 9 ------- null}
h -t 0.172 -s 4 -d 2 -p cbr -e 1000 -c 3 -i 19 -a 3 -x {4.0 3.2 -1 ------- null}
- -t 0.175176470588235 -s 2 -d 3 -p cbr -e 1000 -c 3 -i 13 -a 3 -x {4.0 3.2 6 ------- null}
h -t 0.175176470588235 -s 2 -d 3 -p cbr -e 1000 -c 3 -i 13 -a 3 -x {4.0 3.2 -1 ------- null}
r -t 0.176352941176471 -s 2 -d 3 -p cbr -e 1000 -c 2 -i 8 -a 2 -x {1.0 3.1 4 ------- null}
r -t 0.178 -s 1 -d 2 -p cbr -e 1000 -c 2 -i 16 -a 2 -x {1.0 3.1 8 ------- null}
+ -t 0.178 -s 2 -d 3 -p cbr -e 1000 -c 2 -i 16 -a 2 -x {1.0 3.1 8 ------- null}
r -t 0.178 -s 4 -d 2 -p cbr -e 1000 -c 3 -i 17 -a 3 -x {4.0 3.2 8 ------- null}
+ -t 0.178 -s 2 -d 3 -p cbr -e 1000 -c 3 -i 17 -a 3 -x {4.0 3.2 8 ------- null}
- -t 0.179882352941176 -s 2 -d 3 -p cbr -e 1000 -c 2 -i 14 -a 2 -x {1.0 3.1 7 ------- null}
h -t 0.179882352941176 -s 2 -d 3 -p cbr -e 1000 -c 2 -i 14 -a 2 -x {1.0 3.1 -1 ------- null}
+ -t 0.18 -s 1 -d 2 -p cbr -e 1000 -c 2 -i 20 -a 2 -x {1.0 3.1 10 ------- null}
- -t 0.18 -s 1 -d 2 -p cbr -e 1000 -c 2 -i 20 -a 2 -x {1.0 3.1 10 ------- null}
h -t 0.18 -s 1 -d 2 -p cbr -e 1000 -c 2 -i 20 -a 2 -x {1.0 3.1 -1 ------- null}
+ -t 0.18 -s 4 -d 2 -p cbr -e 1000 -c 3 -i 21 -a 3 -x {4.0 3.2 10 ------- null}
- -t 0.18 -s 4 -d 2 -p cbr -e 1000 -c 3 -i 21 -a 3 -x {4.0 3.2 10 ------- null}
h -t 0.18 -s 4 -d 2 -p cbr -e 1000 -c 3 -i 21 -a 3 -x {4.0 3.2 -1 ------- null}
r -t 0.181058823529412 -s 2 -d 3 -p cbr -e 1000 -c 3 -i 9 -a 3 -x {4.0 3.2 4 ------- null}
- -t 0.184588235294118 -s 2 -d 3 -p cbr -e 1000 -c 3 -i 15 -a 3 -x {4.0 3.2 7 ------- null}
h -t 0.184588235294118 -s 2 -d 3 -p cbr -e 1000 -c 3 -i 15 -a 3 -x {4.0 3.2 -1 ------- null}
r -t 0.185764705882353 -s 2 -d 3 -p cbr -e 1000 -c 2 -i 10 -a 2 -x {1.0 3.1 5 ------- null}
r -t 0.186 -s 1 -d 2 -p cbr -e 1000 -c 2 -i 18 -a 2 -x {1.0 3.1 9 ------- null}
+ -t 0.186 -s 2 -d 3 -p cbr -e 1000 -c 2 -i 18 -a 2 -x {1.0 3.1 9 ------- null}
r -t 0.186 -s 4 -d 2 -p cbr -e 1000 -c 3 -i 19 -a 3 -x {4.0 3.2 9 ------- null}
+ -t 0.186 -s 2 -d 3 -p cbr -e 1000 -c 3 -i 19 -a 3 -x {4.0 3.2 9 ------- null}
+ -t 0.188 -s 1 -d 2 -p cbr -e 1000 -c 2 -i 22 -a 2 -x {1.0 3.1 11 ------- null}
- -t 0.188 -s 1 -d 2 -p cbr -e 1000 -c 2 -i 22 -a 2 -x {1.0 3.1 11 ------- null}
h -t 0.188 -s 1 -d 2 -p cbr -e 1000 -c 2 -i 22 -a 2 -x {1.0 3.1 -1 ------- null}
+ -t 0.188 -s 4 -d 2 -p cbr -e 1000 -c 3 -i 23 -a 3 -x {4.0 3.2 11 ------- null}
- -t 0.188 -s 4 -d 2 -p cbr -e 1000 -c 3 -i 23 -a 3 -x {4.0 3.2 11 ------- null}
h -t 0.188 -s 4 -d 2 -p cbr -e 1000 -c 3 -i 23 -a 3 -x {4.0 3.2 -1 ------- null}
- -t 0.189294117647059 -s 2 -d 3 -p cbr -e 1000 -c 2 -i 16 -a 2 -x {1.0 3.1 8 ------- null}
h -t 0.189294117647059 -s 2 -d 3 -p cbr -e 1000 -c 2 -i 16 -a 2 -x {1.0 3.1 -1 ------- null}
r -t 0.190470588235294 -s 2 -d 3 -p cbr -e 1000 -c 3 -i 11 -a 3 -x {4.0 3.2 5 ------- null}
- -t 0.194 -s 2 -d 3 -p cbr -e 1000 -c 3 -i 17 -a 3 -x {4.0 3.2 8 ------- null}
h -t 0.194 -s 2 -d 3 -p cbr -e 1000 -c 3 -i 17 -a 3 -x {4.0 3.2 -1 ------- null}
r -t 0.194 -s 1 -d 2 -p cbr -e 1000 -c 2 -i 20 -a 2 -x {1.0 3.1 10 ------- null}
+ -t 0.194 -s 2 -d 3 -p cbr -e 1000 -c 2 -i 20 -a 2 -x {1.0 3.1 10 ------- null}
r -t 0.194 -s 4 -d 2 -p cbr -e 1000 -c 3 -i 21 -a 3 -x {4.0 3.2 10 ------- null}
+ -t 0.194 -s 2 -d 3 -p cbr -e 1000 -c 3 -i 21 -a 3 -x {4.0 3.2 10 ------- null}
r -t 0.195176470588235 -s 2 -d 3 -p cbr -e 1000 -c 2 -i 12 -a 2 -x {1.0 3.1 6 ------- null}
+ -t 0.196 -s 1 -d 2 -p cbr -e 1000 -c 2 -i 24 -a 2 -x {1.0 3.1 12 ------- null}
- -t 0.196 -s 1 -d 2 -p cbr -e 1000 -c 2 -i 24 -a 2 -x {1.0 3.1 12 ------- null}
h -t 0.196 -s 1 -d 2 -p cbr -e 1000 -c 2 -i 24 -a 2 -x {1.0 3.1 -1 ------- null}
+ -t 0.196 -s 4 -d 2 -p cbr -e 1000 -c 3 -i 25 -a 3 -x {4.0 3.2 12 ------- null}
- -t 0.196 -s 4 -d 2 -p cbr -e 1000 -c 3 -i 25 -a 3 -x {4.0 3.2 12 ------- null}
h -t 0.196 -s 4 -d 2 -p cbr -e 1000 -c 3 -i 25 -a 3 -x {4.0 3.2 -1 ------- null}
- -t 0.198705882352941 -s 2 -d 3 -p cbr -e 1000 -c 2 -i 18 -a 2 -x {1.0 3.1 9 ------- null}
h -t 0.198705882352941 -s 2 -d 3 -p cbr -e 1000 -c 2 -i 18 -a 2 -x {1.0 3.1 -1 ------- null}
r -t 0.199882352941176 -s 2 -d 3 -p cbr -e 1000 -c 3 -i 13 -a 3 -x {4.0 3.2 6 ------- null}
r -t 0.202 -s 1 -d 2 -p cbr -e 1000 -c 2 -i 22 -a 2 -x {1.0 3.1 11 ------- null}
+ -t 0.202 -s 2 -d 3 -p cbr -e 1000 -c 2 -i 22 -a 2 -x {1.0 3.1 11 ------- null}
r -t 0.202 -s 4 -d 2 -p cbr -e 1000 -c 3 -i 23 -a 3 -x {4.0 3.2 11 ------- null}
+ -t 0.202 -s 2 -d 3 -p cbr -e 1000 -c 3 -i 23 -a 3 -x {4.0 3.2 11 ------- null}
- -t 0.203411764705882 -s 2 -d 3 -p cbr -e 1000 -c 3 -i 19 -a 3 -x {4.0 3.2 9 ------- null}
h -t 0.203411764705882 -s 2 -d 3 -p cbr -e 1000 -c 3 -i 19 -a 3 -x {4.0 3.2 -1 ------- null}
+ -t 0.204 -s 1 -d 2 -p cbr -e 1000 -c 2 -i 26 -a 2 -x {1.0 3.1 13 ------- null}
- -t 0.204 -s 1 -d 2 -p cbr -e 1000 -c 2 -i 26 -a 2 -x {1.0 3.1 13 ------- null}
h -t 0.204 -s 1 -d 2 -p cbr -e 1000 -c 2 -i 26 -a 2 -x {1.0 3.1 -1 ------- null}
+ -t 0.204 -s 4 -d 2 -p cbr -e 1000 -c 3 -i 27 -a 3 -x {4.0 3.2 13 ------- null}
- -t 0.204 -s 4 -d 2 -p cbr -e 1000 -c 3 -i 27 -a 3 -x {4.0 3.2 13 ------- null}
h -t 0.204 -s 4 -d 2 -p cbr -e 1000 -c 3 -i 27 -a 3 -x {4.0 3.2 -1 ------- null}
r -t 0.204588235294118 -s 2 -d 3 -p cbr -e 1000 -c 2 -i 14 -a 2 -x {1.0 3.1 7 ------- null}
- -t 0.208117647058823 -s 2 -d 3 -p cbr -e 1000 -c 2 -i 20 -a 2 -x {1.0 3.1 10 ------- null}
h -t 0.208117647058823 -s 2 -d 3 -p cbr -e 1000 -c 2 -i 20 -a 2 -x {1.0 3.1 -1 ------- null}
r -t 0.209294117647059 -s 2 -d 3 -p cbr -e 1000 -c 3 -i 15 -a 3 -x {4.0 3.2 7 ------- null}
r -t 0.21 -s 1 -d 2 -p cbr -e 1000 -c 2 -i 24 -a 2 -x {1.0 3.1 12 ------- null}
+ -t 0.21 -s 2 -d 3 -p cbr -e 1000 -c 2 -i 24 -a 2 -x {1.0 3.1 12 ------- null}
r -t 0.21 -s 4 -d 2 -p cbr -e 1000 -c 3 -i 25 -a 3 -x {4.0 3.2 12 ------- null}
+ -t 0.21 -s 2 -d 3 -p cbr -e 1000 -c 3 -i 25 -a 3 -x {4.0 3.2 12 ------- null}
+ -t 0.212 -s 1 -d 2 -p cbr -e 1000 -c 2 -i 28 -a 2 -x {1.0 3.1 14 ------- null}
- -t 0.212 -s 1 -d 2 -p cbr -e 1000 -c 2 -i 28 -a 2 -x {1.0 3.1 14 ------- null}
h -t 0.212 -s 1 -d 2 -p cbr -e 1000 -c 2 -i 28 -a 2 -x {1.0 3.1 -1 ------- null}
+ -t 0.212 -s 4 -d 2 -p cbr -e 1000 -c 3 -i 29 -a 3 -x {4.0 3.2 14 ------- null}
- -t 0.212 -s 4 -d 2 -p cbr -e 1000 -c 3 -i 29 -a 3 -x {4.0 3.2 14 ------- null}
h -t 0.212 -s 4 -d 2 -p cbr -e 1000 -c 3 -i 29 -a 3 -x {4.0 3.2 -1 ------- null}
- -t 0.212823529411765 -s 2 -d 3 -p cbr -e 1000 -c 3 -i 21 -a 3 -x {4.0 3.2 10 ------- null}
h -t 0.212823529411765 -s 2 -d 3 -p cbr -e 1000 -c 3 -i 21 -a 3 -x {4.0 3.2 -1 ------- null}
r -t 0.214 -s 2 -d 3 -p cbr -e 1000 -c 2 -i 16 -a 2 -x {1.0 3.1 8 ------- null}
- -t 0.217529411764706 -s 2 -d 3 -p cbr -e 1000 -c 2 -i 22 -a 2 -x {1.0 3.1 11 ------- null}
h -t 0.217529411764706 -s 2 -d 3 -p cbr -e 1000 -c 2 -i 22 -a 2 -x {1.0 3.1 -1 ------- null}
r -t 0.218 -s 1 -d 2 -p cbr -e 1000 -c 2 -i 26 -a 2 -x {1.0 3.1 13 ------- null}
+ -t 0.218 -s 2 -d 3 -p cbr -e 1000 -c 2 -i 26 -a 2 -x {1.0 3.1 13 ------- null}
r -t 0.218 -s 4 -d 2 -p cbr -e 1000 -c 3 -i 27 -a 3 -x {4.0 3.2 13 ------- null}
+ -t 0.218 -s 2 -d 3 -p cbr -e 1000 -c 3 -i 27 -a 3 -x {4.0 3.2 13 ------- null}
r -t 0.218705882352941 -s 2 -d 3 -p cbr -e 1000 -c 3 -i 17 -a 3 -x {4.0 3.2 8 ------- null}
+ -t 0.22 -s 1 -d 2 -p cbr -e 1000 -c 2 -i 30 -a 2 -x {1.0 3.1 15 ------- null}
- -t 0.22 -s 1 -d 2 -p cbr -e 1000 -c 2 -i 30 -a 2 -x {1.0 3.1 15 ------- null}
h -t 0.22 -s 1 -d 2 -p cbr -e 1000 -c 2 -i 30 -a 2 -x {1.0 3.1 -1 ------- null}
+ -t 0.22 -s 4 -d 2 -p cbr -e 1000 -c 3 -i 31 -a 3 -x {4.0 3.2 15 ------- null}
- -t 0.22 -s 4 -d 2 -p cbr -e 1000 -c 3 -i 31 -a 3 -x {4.0 3.2 15 ------- null}
h -t 0.22 -s 4 -d 2 -p cbr -e 1000 -c 3 -i 31 -a 3 -x {4.0 3.2 -1 ------- null}
- -t 0.222235294117647 -s 2 -d 3 -p cbr -e 1000 -c 3 -i 23 -a 3 -x {4.0 3.2 11 ------- null}
h -t 0.222235294117647 -s 2 -d 3 -p cbr -e 1000 -c 3 -i 23 -a 3 -x {4.0 3.2 -1 ------- null}
r -t 0.223411764705882 -s 2 -d 3 -p cbr -e 1000 -c 2 -i 18 -a 2 -x {1.0 3.1 9 ------- null}
r -t 0.226 -s 1 -d 2 -p cbr -e 1000 -c 2 -i 28 -a 2 -x {1.0 3.1 14 ------- null}
+ -t 0.226 -s 2 -d 3 -p cbr -e 1000 -c 2 -i 28 -a 2 -x {1.0 3.1 14 ------- null}
r -t 0.226 -s 4 -d 2 -p cbr -e 1000 -c 3 -i 29 -a 3 -x {4.0 3.2 14 ------- null}
+ -t 0.226 -s 2 -d 3 -p cbr -e 1000 -c 3 -i 29 -a 3 -x {4.0 3.2 14 ------- null}
- -t 0.226941176470588 -s 2 -d 3 -p cbr -e 1000 -c 2 -i 24 -a 2 -x {1.0 3.1 12 ------- null}
h -t 0.226941176470588 -s 2 -d 3 -p cbr -e 1000 -c 2 -i 24 -a 2 -x {1.0 3.1 -1 ------- null}
+ -t 0.228 -s 1 -d 2 -p cbr -e 1000 -c 2 -i 32 -a 2 -x {1.0 3.1 16 ------- null}
- -t 0.228 -s 1 -d 2 -p cbr -e 1000 -c 2 -i 32 -a 2 -x {1.0 3.1 16 ------- null}
h -t 0.228 -s 1 -d 2 -p cbr -e 1000 -c 2 -i 32 -a 2 -x {1.0 3.1 -1 ------- null}
+ -t 0.228 -s 4 -d 2 -p cbr -e 1000 -c 3 -i 33 -a 3 -x {4.0 3.2 16 ------- null}
- -t 0.228 -s 4 -d 2 -p cbr -e 1000 -c 3 -i 33 -a 3 -x {4.0 3.2 16 ------- null}
h -t 0.228 -s 4 -d 2 -p cbr -e 1000 -c 3 -i 33 -a 3 -x {4.0 3.2 -1 ------- null}
r -t 0.228117647058823 -s 2 -d 3 -p cbr -e 1000 -c 3 -i 19 -a 3 -x {4.0 3.2 9 ------- null}
- -t 0.231647058823529 -s 2 -d 3 -p cbr -e 1000 -c 3 -i 25 -a 3 -x {4.0 3.2 12 ------- null}
h -t 0.231647058823529 -s 2 -d 3 -p cbr -e 1000 -c 3 -i 25 -a 3 -x {4.0 3.2 -1 ------- null}
r -t 0.232823529411765 -s 2 -d 3 -p cbr -e 1000 -c 2 -i 20 -a 2 -x {1.0 3.1 10 ------- null}
r -t 0.234 -s 1 -d 2 -p cbr -e 1000 -c 2 -i 30 -a 2 -x {1.0 3.1 15 ------- null}
+ -t 0.234 -s 2 -d 3 -p cbr -e 1000 -c 2 -i 30 -a 2 -x {1.0 3.1 15 ------- null}
r -t 0.234 -s 4 -d 2 -p cbr -e 1000 -c 3 -i 31 -a 3 -x {4.0 3.2 15 ------- null}
+ -t 0.234 -s 2 -d 3 -p cbr -e 1000 -c 3 -i 31 -a 3 -x {4.0 3.2 15 ------- null}
+ -t 0.236 -s 1 -d 2 -p cbr -e 1000 -c 2 -i 34 -a 2 -x {1.0 3.1 17 ------- null}
- -t 0.236 -s 1 -d 2 -p cbr -e 1000 -c 2 -i 34 -a 2 -x {1.0 3.1 17 ------- null}
h -t 0.236 -s 1 -d 2 -p cbr -e 1000 -c 2 -i 34 -a 2 -x {1.0 3.1 -1 ------- null}
+ -t 0.236 -s 4 -d 2 -p cbr -e 1000 -c 3 -i 35 -a 3 -x {4.0 3.2 17 ------- null}
- -t 0.236 -s 4 -d 2 -p cbr -e 1000 -c 3 -i 35 -a 3 -x {4.0 3.2 17 ------- null}
h -t 0.236 -s 4 -d 2 -p cbr -e 1000 -c 3 -i 35 -a 3 -x {4.0 3.2 -1 ------- null}
- -t 0.23635294117647 -s 2 -d 3 -p cbr -e 1000 -c 2 -i 26 -a 2 -x {1.0 3.1 13 ------- null}
h -t 0.23635294117647 -s 2 -d 3 -p cbr -e 1000 -c 2 -i 26 -a 2 -x {1.0 3.1 -1 ------- null}
r -t 0.237529411764706 -s 2 -d 3 -p cbr -e 1000 -c 3 -i 21 -a 3 -x {4.0 3.2 10 ------- null}
- -t 0.241058823529412 -s 2 -d 3 -p cbr -e 1000 -c 3 -i 27 -a 3 -x {4.0 3.2 13 ------- null}
h -t 0.241058823529412 -s 2 -d 3 -p cbr -e 1000 -c 3 -i 27 -a 3 -x {4.0 3.2 -1 ------- null}
r -t 0.242 -s 1 -d 2 -p cbr -e 1000 -c 2 -i 32 -a 2 -x {1.0 3.1 16 ------- null}
+ -t 0.242 -s 2 -d 3 -p cbr -e 1000 -c 2 -i 32 -a 2 -x {1.0 3.1 16 ------- null}
r -t 0.242 -s 4 -d 2 -p cbr -e 1000 -c 3 -i 33 -a 3 -x {4.0 3.2 16 ------- null}
+ -t 0.242 -s 2 -d 3 -p cbr -e 1000 -c 3 -i 33 -a 3 -x {4.0 3.2 16 ------- null}
r -t 0.242235294117647 -s 2 -d 3 -p cbr -e 1000 -c 2 -i 22 -a 2 -x {1.0 3.1 11 ------- null}
+ -t 0.244 -s 1 -d 2 -p cbr -e 1000 -c 2 -i 36 -a 2 -x {1.0 3.1 18 ------- null}
- -t 0.244 -s 1 -d 2 -p cbr -e 1000 -c 2 -i 36 -a 2 -x {1.0 3.1 18 ------- null}
h -t 0.244 -s 1 -d 2 -p cbr -e 1000 -c 2 -i 36 -a 2 -x {1.0 3.1 -1 ------- null}
+ -t 0.244 -s 4 -d 2 -p cbr -e 1000 -c 3 -i 37 -a 3 -x {4.0 3.2 18 ------- null}
- -t 0.244 -s 4 -d 2 -p cbr -e 1000 -c 3 -i 37 -a 3 -x {4.0 3.2 18 ------- null}
h -t 0.244 -s 4 -d 2 -p cbr -e 1000 -c 3 -i 37 -a 3 -x {4.0 3.2 -1 ------- null}
- -t 0.245764705882353 -s 2 -d 3 -p cbr -e 1000 -c 2 -i 28 -a 2 -x {1.0 3.1 14 ------- null}
h -t 0.245764705882353 -s 2 -d 3 -p cbr -e 1000 -c 2 -i 28 -a 2 -x {1.0 3.1 -1 ------- null}
r -t 0.246941176470588 -s 2 -d 3 -p cbr -e 1000 -c 3 -i 23 -a 3 -x {4.0 3.2 11 ------- null}
r -t 0.25 -s 1 -d 2 -p cbr -e 1000 -c 2 -i 34 -a 2 -x {1.0 3.1 17 ------- null}
+ -t 0.25 -s 2 -d 3 -p cbr -e 1000 -c 2 -i 34 -a 2 -x {1.0 3.1 17 ------- null}
r -t 0.25 -s 4 -d 2 -p cbr -e 1000 -c 3 -i 35 -a 3 -x {4.0 3.2 17 ------- null}
+ -t 0.25 -s 2 -d 3 -p cbr -e 1000 -c 3 -i 35 -a 3 -x {4.0 3.2 17 ------- null}
- -t 0.250470588235294 -s 2 -d 3 -p cbr -e 1000 -c 3 -i 29 -a 3 -x {4.0 3.2 14 ------- null}
h -t 0.250470588235294 -s 2 -d 3 -p cbr -e 1000 -c 3 -i 29 -a 3 -x {4.0 3.2 -1 ------- null}
r -t 0.251647058823529 -s 2 -d 3 -p cbr -e 1000 -c 2 -i 24 -a 2 -x {1.0 3.1 12 ------- null}
+ -t 0.252 -s 1 -d 2 -p cbr -e 1000 -c 2 -i 38 -a 2 -x {1.0 3.1 19 ------- null}
- -t 0.252 -s 1 -d 2 -p cbr -e 1000 -c 2 -i 38 -a 2 -x {1.0 3.1 19 ------- null}
h -t 0.252 -s 1 -d 2 -p cbr -e 1000 -c 2 -i 38 -a 2 -x {1.0 3.1 -1 ------- null}
+ -t 0.252 -s 4 -d 2 -p cbr -e 1000 -c 3 -i 39 -a 3 -x {4.0 3.2 19 ------- null}
- -t 0.252 -s 4 -d 2 -p cbr -e 1000 -c 3 -i 39 -a 3 -x {4.0 3.2 19 ------- null}
h -t 0.252 -s 4 -d 2 -p cbr -e 1000 -c 3 -i 39 -a 3 -x {4.0 3.2 -1 ------- null}
- -t 0.255176470588235 -s 2 -d 3 -p cbr -e 1000 -c 2 -i 30 -a 2 -x {1.0 3.1 15 ------- null}
h -t 0.255176470588235 -s 2 -d 3 -p cbr -e 1000 -c 2 -i 30 -a 2 -x {1.0 3.1 -1 ------- null}
r -t 0.25635294117647 -s 2 -d 3 -p cbr -e 1000 -c 3 -i 25 -a 3 -x {4.0 3.2 12 ------- null}
r -t 0.258 -s 1 -d 2 -p cbr -e 1000 -c 2 -i 36 -a 2 -x {1.0 3.1 18 ------- null}
+ -t 0.258 -s 2 -d 3 -p cbr -e 1000 -c 2 -i 36 -a 2 -x {1.0 3.1 18 ------- null}
r -t 0.258 -s 4 -d 2 -p cbr -e 1000 -c 3 -i 37 -a 3 -x {4.0 3.2 18 ------- null}
+ -t 0.258 -s 2 -d 3 -p cbr -e 1000 -c 3 -i 37 -a 3 -x {4.0 3.2 18 ------- null}
- -t 0.259882352941176 -s 2 -d 3 -p cbr -e 1000 -c 3 -i 31 -a 3 -x {4.0 3.2 15 ------- null}
h -t 0.259882352941176 -s 2 -d 3 -p cbr -e 1000 -c 3 -i 31 -a 3 -x {4.0 3.2 -1 ------- null}
+ -t 0.26 -s 1 -d 2 -p cbr -e 1000 -c 2 -i 40 -a 2 -x {1.0 3.1 20 ------- null}
- -t 0.26 -s 1 -d 2 -p cbr -e 1000 -c 2 -i 40 -a 2 -x {1.0 3.1 20 ------- null}
h -t 0.26 -s 1 -d 2 -p cbr -e 1000 -c 2 -i 40 -a 2 -x {1.0 3.1 -1 ------- null}
+ -t 0.26 -s 4 -d 2 -p cbr -e 1000 -c 3 -i 41 -a 3 -x {4.0 3.2 20 ------- null}
- -t 0.26 -s 4 -d 2 -p cbr -e 1000 -c 3 -i 41 -a 3 -x {4.0 3.2 20 ------- null}
h -t 0.26 -s 4 -d 2 -p cbr -e 1000 -c 3 -i 41 -a 3 -x {4.0 3.2 -1 ------- null}
r -t 0.261058823529412 -s 2 -d 3 -p cbr -e 1000 -c 2 -i 26 -a 2 -x {1.0 3.1 13 ------- null}
- -t 0.264588235294118 -s 2 -d 3 -p cbr -e 1000 -c 2 -i 32 -a 2 -x {1.0 3.1 16 ------- null}
h -t 0.264588235294118 -s 2 -d 3 -p cbr -e 1000 -c 2 -i 32 -a 2 -x {1.0 3.1 -1 ------- null}
r -t 0.265764705882353 -s 2 -d 3 -p cbr -e 1000 -c 3 -i 27 -a 3 -x {4.0 3.2 13 ------- null}
r -t 0.266 -s 1 -d 2 -p cbr -e 1000 -c 2 -i 38 -a 2 -x {1.0 3.1 19 ------- null}
+ -t 0.266 -s 2 -d 3 -p cbr -e 1000 -c 2 -i 38 -a 2 -x {1.0 3.1 19 ------- null}
r -t 0.266 -s 4 -d 2 -p cbr -e 1000 -c 3 -i 39 -a 3 -x {4.0 3.2 19 ------- null}
+ -t 0.266 -s 2 -d 3 -p cbr -e 1000 -c 3 -i 39 -a 3 -x {4.0 3.2 19 ------- null}
+ -t 0.268 -s 1 -d 2 -p cbr -e 1000 -c 2 -i 42 -a 2 -x {1.0 3.1 21 ------- null}
- -t 0.268 -s 1 -d 2 -p cbr -e 1000 -c 2 -i 42 -a 2 -x {1.0 3.1 21 ------- null}
h -t 0.268 -s 1 -d 2 -p cbr -e 1000 -c 2 -i 42 -a 2 -x {1.0 3.1 -1 ------- null}
+ -t 0.268 -s 4 -d 2 -p cbr -e 1000 -c 3 -i 43 -a 3 -x {4.0 3.2 21 ------- null}
- -t 0.268 -s 4 -d 2 -p cbr -e 1000 -c 3 -i 43 -a 3 -x {4.0 3.2 21 ------- null}
h -t 0.268 -s 4 -d 2 -p cbr -e 1000 -c 3 -i 43 -a 3 -x {4.0 3.2 -1 ------- null}
- -t 0.269294117647059 -s 2 -d 3 -p cbr -e 1000 -c 3 -i 33 -a 3 -x {4.0 3.2 16 ------- null}
h -t 0.269294117647059 -s 2 -d 3 -p cbr -e 1000 -c 3 -i 33 -a 3 -x {4.0 3.2 -1 ------- null}
r -t 0.270470588235294 -s 2 -d 3 -p cbr -e 1000 -c 2 -i 28 -a 2 -x {1.0 3.1 14 ------- null}
- -t 0.274 -s 2 -d 3 -p cbr -e 1000 -c 2 -i 34 -a 2 -x {1.0 3.1 17 ------- null}
h -t 0.274 -s 2 -d 3 -p cbr -e 1000 -c 2 -i 34 -a 2 -x {1.0 3.1 -1 ------- null}
r -t 0.274 -s 1 -d 2 -p cbr -e 1000 -c 2 -i 40 -a 2 -x {1.0 3.1 20 ------- null}
+ -t 0.274 -s 2 -d 3 -p cbr -e 1000 -c 2 -i 40 -a 2 -x {1.0 3.1 20 ------- null}
r -t 0.274 -s 4 -d 2 -p cbr -e 1000 -c 3 -i 41 -a 3 -x {4.0 3.2 20 ------- null}
+ -t 0.274 -s 2 -d 3 -p cbr -e 1000 -c 3 -i 41 -a 3 -x {4.0 3.2 20 ------- null}
r -t 0.275176470588235 -s 2 -d 3 -p cbr -e 1000 -c 3 -i 29 -a 3 -x {4.0 3.2 14 ------- null}
+ -t 0.276 -s 1 -d 2 -p cbr -e 1000 -c 2 -i 44 -a 2 -x {1.0 3.1 22 ------- null}
- -t 0.276 -s 1 -d 2 -p cbr -e 1000 -c 2 -i 44 -a 2 -x {1.0 3.1 22 ------- null}
h -t 0.276 -s 1 -d 2 -p cbr -e 1000 -c 2 -i 44 -a 2 -x {1.0 3.1 -1 ------- null}
+ -t 0.276 -s 4 -d 2 -p cbr -e 1000 -c 3 -i 45 -a 3 -x {4.0 3.2 22 ------- null}
- -t 0.276 -s 4 -d 2 -p cbr -e 1000 -c 3 -i 45 -a 3 -x {4.0 3.2 22 ------- null}
h -t 0.276 -s 4 -d 2 -p cbr -e 1000 -c 3 -i 45 -a 3 -x {4.0 3.2 -1 ------- null}
- -t 0.278705882352941 -s 2 -d 3 -p cbr -e 1000 -c 3 -i 35 -a 3 -x {4.0 3.2 17 ------- null}
h -t 0.278705882352941 -s 2 -d 3 -p cbr -e 1000 -c 3 -i 35 -a 3 -x {4.0 3.2 -1 ------- null}
r -t 0.279882352941176 -s 2 -d 3 -p cbr -e 1000 -c 2 -i 30 -a 2 -x {1.0 3.1 15 ------- null}
r -t 0.282 -s 1 -d 2 -p cbr -e 1000 -c 2 -i 42 -a 2 -x {1.0 3.1 21 ------- null}
+ -t 0.282 -s 2 -d 3 -p cbr -e 1000 -c 2 -i 42 -a 2 -x {1.0 3.1 21 ------- null}
r -t 0.282 -s 4 -d 2 -p cbr -e 1000 -c 3 -i 43 -a 3 -x {4.0 3.2 21 ------- null}
+ -t 0.282 -s 2 -d 3 -p cbr -e 1000 -c 3 -i 43 -a 3 -x {4.0 3.2 21 ------- null}
- -t 0.283411764705882 -s 2 -d 3 -p cbr -e 1000 -c 2 -i 36 -a 2 -x {1.0 3.1 18 ------- null}
h -t 0.283411764705882 -s 2 -d 3 -p cbr -e 1000 -c 2 -i 36 -a 2 -x {1.0 3.1 -1 ------- null}
+ -t 0.284 -s 1 -d 2 -p cbr -e 1000 -c 2 -i 46 -a 2 -x {1.0 3.1 23 ------- null}
- -t 0.284 -s 1 -d 2 -p cbr -e 1000 -c 2 -i 46 -a 2 -x {1.0 3.1 23 ------- null}
h -t 0.284 -s 1 -d 2 -p cbr -e 1000 -c 2 -i 46 -a 2 -x {1.0 3.1 -1 ------- null}
+ -t 0.284 -s 4 -d 2 -p cbr -e 1000 -c 3 -i 47 -a 3 -x {4.0 3.2 23 ------- null}
- -t 0.284 -s 4 -d 2 -p cbr -e 1000 -c 3 -i 47 -a 3 -x {4.0 3.2 23 ------- null}
h -t 0.284 -s 4 -d 2 -p cbr -e 1000 -c 3 -i 47 -a 3 -x {4.0 3.2 -1 ------- null}
r -t 0.284588235294118 -s 2 -d 3 -p cbr -e 1000 -c 3 -i 31 -a 3 -x {4.0 3.2 15 ------- null}
- -t 0.288117647058823 -s 2 -d 3 -p cbr -e 1000 -c 3 -i 37 -a 3 -x {4.0 3.2 18 ------- null}
h -t 0.288117647058823 -s 2 -d 3 -p cbr -e 1000 -c 3 -i 37 -a 3 -x {4.0 3.2 -1 ------- null}
r -t 0.289294117647059 -s 2 -d 3 -p cbr -e 1000 -c 2 -i 32 -a 2 -x {1.0 3.1 16 ------- null}
r -t 0.29 -s 1 -d 2 -p cbr -e 1000 -c 2 -i 44 -a 2 -x {1.0 3.1 22 ------- null}
+ -t 0.29 -s 2 -d 3 -p cbr -e 1000 -c 2 -i 44 -a 2 -x {1.0 3.1 22 ------- null}
r -t 0.29 -s 4 -d 2 -p cbr -e 1000 -c 3 -i 45 -a 3 -x {4.0 3.2 22 ------- null}
+ -t 0.29 -s 2 -d 3 -p cbr -e 1000 -c 3 -i 45 -a 3 -x {4.0 3.2 22 ------- null}
+ -t 0.292 -s 1 -d 2 -p cbr -e 1000 -c 2 -i 48 -a 2 -x {1.0 3.1 24 ------- null}
- -t 0.292 -s 1 -d 2 -p cbr -e 1000 -c 2 -i 48 -a 2 -x {1.0 3.1 24 ------- null}
h -t 0.292 -s 1 -d 2 -p cbr -e 1000 -c 2 -i 48 -a 2 -x {1.0 3.1 -1 ------- null}
+ -t 0.292 -s 4 -d 2 -p cbr -e 1000 -c 3 -i 49 -a 3 -x {4.0 3.2 24 ------- null}